LAMMPS data file via write_data, version 27 May 2021, timestep = 2000000

4400 atoms
10 atom types
2240 bonds
1 bond types
1120 angles
1 angle types

0 21.304 xlo xhi
0 19.68 ylo yhi
4.182715637792897 111.81728436223125 zlo zhi

Masses

1 35.453
2 22.99
3 15.9994
4 1.008
5 12.011
6 12.011
7 12.011
8 12.011
9 12.011
10 12.011

Atoms # full

2721 1601 3 -0.834 5.565855998229559 5.655024677435034 9.691151402599983 3 -5 0
4099 2060 4 0.417 1.7435293495186808 7.805171709761073 7.978386243497653 5 -2 0
2722 1601 4 0.417 6.4663789547027175 5.355912475770669 9.817126345335724 3 -5 0
2737 1606 4 0.417 6.36199478895611 8.7973535064061 5.588748473910543 0 -3 0
2823 1635 3 -0.834 3.400335972013451 2.059891420970215 8.177807754754784 -4 -8 0
4034 2038 4 0.417 6.328411395868698 3.7752697033014253 4.610325848528987 -4 -1 0
2032 1371 4 0.417 3.5776565430610057 4.837485555439492 6.605786097831557 -2 -10 0
3326 1802 4 0.417 1.235569894810802 9.278426407046272 4.4240681759680385 1 1 0
2033 1371 4 0.417 4.535507769204092 3.8711217220911096 5.941982263125334 -2 -10 0
2031 1371 3 -0.834 3.6259693268132365 3.9598237567078356 6.226624533471502 -2 -10 0
1054 1045 4 0.417 10.05679497208926 4.483324957350145 7.3613597526466625 -2 -9 0
4207 2096 4 0.417 9.037213302274868 4.802945277997219 9.07264687935421 -3 -5 0
2824 1635 4 0.417 3.4026983910233635 2.883316890750716 7.689874464757626 -4 -8 0
2260 1447 4 0.417 1.8053391206440104 6.325187334440612 10.17446062280732 -5 -9 0
4206 2096 3 -0.834 8.208854516109572 4.9217017381393555 9.537224130463025 -3 -5 0
4032 2038 3 -0.834 6.25587772059704 4.269747414197387 5.426605760187876 -4 -1 0
2641 1574 4 0.417 8.644487054643157 7.901933012758408 8.262289366442927 -3 -3 0
1427 1169 4 0.417 4.27462823563202 0.5703624152455753 8.361731528083734 -2 -2 0
2933 1671 4 0.417 5.362022923146275 9.560198515280472 8.99488695309044 1 -5 0
1966 1349 4 0.417 7.219728150219745 2.1949965958123583 7.799726852958129 1 3 0
2736 1606 3 -0.834 6.147689504497733 9.480366588543374 4.95306498359294 0 -3 0
2937 1673 3 -0.834 0.08449567026787468 6.103471530131641 5.7642423432173295 8 -4 0
3416 1832 4 0.417 1.8865288842403511 3.3847162612304573 5.986135477830595 2 -2 0
4033 2038 4 0.417 6.55437288485064 3.661619277346376 6.103088802779289 -4 -1 0
3606 1896 3 -0.834 7.237673441678301 6.653579065491745 6.909016894878301 -4 -6 0
2723 1601 4 0.417 5.184147711232156 5.642947093044899 10.569122184047435 3 -5 0
2129 1403 4 0.417 0.4423594575552771 3.132373846570421 8.299777124684095 -11 -8 0
1967 1349 4 0.417 8.325116671708324 2.5449267832622406 6.826204453970483 1 3 0
2932 1671 4 0.417 5.282232731187064 8.588148276412758 7.836913092165616 1 -5 0
2931 1671 3 -0.834 5.855479022904825 8.871620163973882 8.549032809953571 1 -5 0
2640 1574 3 -0.834 9.389817542931635 8.313611484353142 8.699465854058333 -3 -3 0
2825 1635 4 0.417 3.2497233437462776 2.3200041130319238 9.086852632933754 -4 -8 0
2642 1574 4 0.417 9.008061245684962 8.759779573407505 9.455636876192152 -3 -3 0
2784 1622 3 -0.834 7.015902022979827 1.226338524628612 9.778491862243133 2 6 0
1965 1349 3 -0.834 7.377057563419845 2.4263959651890055 6.884080744172488 1 3 0
3414 1832 3 -0.834 0.9642940387232771 3.4854290576962104 5.750206199503924 2 -2 0
1649 1243 4 0.417 9.514001543408904 0.260178794652324 9.162653381924168 -8 -11 0
2785 1622 4 0.417 6.697301075905668 1.111527424531875 10.674038634623816 2 6 0
3415 1832 4 0.417 0.8593452415607399 4.4227139627515495 5.586912530748363 2 -2 0
1795 1292 4 0.417 10.246525055931711 2.571635544117176 7.965048464520791 -6 -8 0
3868 1983 4 0.417 9.1631584819124 7.716234028629302 5.0226119297987495 1 0 0
4208 2096 4 0.417 7.997936942008556 4.052339257467809 9.877949615973895 -3 -5 0
1053 1045 3 -0.834 9.767342988579248 3.8021071424979644 6.7541756155450905 -2 -9 0
4387 2156 4 0.417 4.132183438773751 6.828079339468187 5.694402538805599 1 -1 0
2165 1415 4 0.417 1.864866930358231 1.0623624211788425 7.735100572603551 -5 -15 0
3867 1983 3 -0.834 9.258362736463845 6.7768007117442925 4.865473168330724 1 0 0
2786 1622 4 0.417 7.904433751089372 0.8706030890005775 9.792658715157767 2 6 0
3869 1983 4 0.417 8.693418872318915 6.365708997462283 5.519986588158607 1 0 0
3608 1896 4 0.417 6.840285767678254 6.527251310100198 7.770873794517025 -4 -6 0
4098 2060 3 -0.834 1.5448970652221605 7.968347922550044 7.056090779350103 5 -2 0
2801 1627 4 0.417 4.635918803655419 6.284774390236239 8.318219717233367 1 -5 0
4100 2060 4 0.417 1.1570980324889761 7.15011987759729 6.745827799204223 5 -2 0
2799 1627 3 -0.834 3.9821520639588748 6.2774965677914105 7.6188597196410175 1 -5 0
2738 1606 4 0.417 6.996153690951214 9.831701916524827 4.683204711021543 0 -3 0
4388 2156 4 0.417 3.1004411430902685 7.3115082844741535 4.697466824652404 1 -1 0
4386 2156 3 -0.834 3.8740321639444684 6.753223085847679 4.775456219282514 1 -1 0
4317 2133 3 -0.834 9.005886364461873 9.824231023884684 4.569421652755613 -3 -4 0
1125 1069 3 -0.834 2.744313846256984 3.4326843281201653 10.487502154260133 2 -1 0
1055 1045 4 0.417 10.374060789130976 3.8644107676741712 6.016542664189177 -2 -9 0
2261 1447 4 0.417 0.9602019781243548 5.4328774352015845 9.290389785368175 -5 -9 0
1426 1169 4 0.417 5.637259516706334 0.20525931880564438 8.911172688511698 -2 -2 0
3324 1802 3 -0.834 0.8478135772969746 9.792712886263239 5.13205382341736 1 1 0
2164 1415 4 0.417 1.1431679104976047 0.9040978614977303 6.413612633636215 -5 -15 0
2800 1627 4 0.417 3.1650946723467768 6.039078110465813 8.057027764384387 1 -5 0
1127 1069 4 0.417 2.927294766692578 4.33103484699196 10.212483447252279 2 -1 0
3607 1896 4 0.417 6.664664059821693 6.17714272507689 6.308383229787578 -4 -6 0
1794 1292 3 -0.834 10.101625133683255 1.6978542566706798 8.327875954955108 -6 -8 0
2163 1415 3 -0.834 1.0692657284735811 0.6993869016705535 7.34565820987961 -5 -15 0
2259 1447 3 -0.834 1.7964700941688667 5.897775674151823 9.31777711996386 -5 -9 0
3325 1802 4 0.417 1.1225132045293853 9.344857218749748 5.932423197993359 1 1 0
2993 1691 4 0.417 9.267240460642457 2.687886579709864 4.291413308208242 -2 3 0
1848 1310 3 -0.834 5.229558654199567 8.544084650696714 12.470350808555626 8 -5 0
1849 1310 4 0.417 5.103790022583648 8.508617534293371 11.522194137460739 8 -5 0
1850 1310 4 0.417 4.389141689133469 8.848617963470321 12.81288718028115 8 -5 0
2377 1486 4 0.417 3.959277869431224 5.850678112556213 13.065517630251856 4 -7 0
4004 2028 4 0.417 2.259043804129559 5.271206551219703 15.234269205213128 0 2 0
1111 1064 4 0.417 2.5497455495770893 9.668949679312151 13.696838759693332 -10 -3 0
3985 2022 4 0.417 10.4479092714374 3.2983644801030163 13.772827555214386 -6 -4 0
2092 1391 4 0.417 6.513611960142999 5.209528331517052 17.626692566684802 -5 -1 0
1899 1327 3 -0.834 9.564477390101022 5.921175391633114 16.64135970498943 3 -6 0
1226 1102 4 0.417 4.919841190033809 5.507186828780695 15.315574427810352 -11 -1 0
4258 2113 4 0.417 0.49824491922528924 8.90844989120343 16.29248000124476 -6 -6 0
3794 1958 4 0.417 0.5259445825858321 3.5945246879083292 16.237538069510553 -1 -15 0
2099 1393 4 0.417 7.472146410415373 8.653563397482449 11.917593658529244 0 1 0
1901 1327 4 0.417 9.846678587126771 5.839443782905399 15.730448917283336 3 -6 0
2763 1615 3 -0.834 0.2254526293372579 7.964304152031606 14.72897745293 1 -7 0
2093 1391 4 0.417 7.985647285296472 5.544075649048114 17.512253678252605 -5 -1 0
4385 2155 4 0.417 9.68528029544373 5.37258099891722 12.310977472432393 2 -6 0
3703 1928 4 0.417 4.98606525586883 1.997548764635669 16.737621418214246 -4 -3 0
2376 1486 3 -0.834 4.6726345896301815 5.292308397635993 12.756159986972898 4 -7 0
2817 1633 3 -0.834 9.863091714752578 0.09593049038579256 12.580542338037052 -3 -5 0
4257 2113 3 -0.834 0.8093126791175339 9.657826775148116 16.800197727643578 -6 -6 0
2764 1615 4 0.417 0.056206145996365996 7.094625362677276 14.366831455140677 1 -7 0
1564 1215 4 0.417 0.9469552211773015 0.44949193549304767 13.242088900031465 2 -1 0
2058 1380 3 -0.834 1.4248221206393215 6.607425474632542 12.00229536270329 -6 -9 0
2098 1393 4 0.417 8.694323325900745 7.779239582638618 11.733891113698768 0 1 0
1349 1143 4 0.417 2.7165163219012 4.439212238730267 17.154206733441086 -4 -1 0
2207 1429 4 0.417 4.580790690420368 8.2474451362263 15.872782002044515 8 -14 0
1347 1143 3 -0.834 3.446755120842909 3.85427061422486 17.356121209482446 -4 -1 0
4002 2028 3 -0.834 2.863780253465299 5.9864247067191885 15.036622362425277 0 2 0
4306 2129 4 0.417 8.356207282148182 8.965989825014466 14.486651083987454 0 -2 0
3574 1885 4 0.417 9.44487788085026 1.9297973661856431 12.676908376941004 3 -10 0
2378 1486 4 0.417 4.440886763565805 4.415428883677757 13.062317969536181 4 -7 0
3573 1885 3 -0.834 9.265260802228285 2.8654801265657994 12.584685671293128 3 -10 0
2097 1393 3 -0.834 8.34781622489324 8.648159169384863 11.530854296637399 0 1 0
3702 1928 3 -0.834 5.493183058730459 1.5022713874452964 16.094143851764038 -4 -3 0
4383 2155 3 -0.834 9.532339651601184 6.181799545765008 11.82290001605725 2 -6 0
4003 2028 4 0.417 2.903966957131175 6.496899712156076 15.845593480970802 0 2 0
2320 1467 4 0.417 10.092022611927188 1.046937298867571 16.273864708752736 6 4 0
2355 1479 3 -0.834 7.331762933498305 7.330643977737338 13.97591362137379 13 -13 0
1225 1102 4 0.417 4.861213963009505 4.642498906258445 16.556968883088455 -11 -1 0
2206 1429 4 0.417 5.937847464933854 8.208813117879613 15.202795480699052 8 -14 0
1126 1069 4 0.417 2.918817684889807 3.4297135373564887 11.42891939700779 2 -1 0
4352 2144 4 0.417 0.7629972611572959 0.6739416133020398 15.395510691496874 0 -3 0
1565 1215 4 0.417 1.3821104135901825 0.03944292530021986 11.85113098599475 2 -1 0
4384 2155 4 0.417 9.310540966628407 5.8905500146823675 10.938560496299777 2 -6 0
4203 2095 3 -0.834 3.331777752381079 2.5381729639770274 13.260218277967367 0 -6 0
3575 1885 4 0.417 8.362049155173217 2.967128100074376 12.885071698815988 3 -10 0
2344 1475 4 0.417 6.527349878514526 1.1815479139697063 12.819063481035588 0 -5 0
2357 1479 4 0.417 6.634427130351951 7.1760258691690675 13.338806130672694 13 -13 0
2356 1479 4 0.417 7.356778911030881 6.53192136915888 14.503067440741976 13 -13 0
4305 2129 3 -0.834 8.971053298648009 9.640125128370924 14.775883194681349 0 -2 0
1563 1215 3 -0.834 1.7201722107862387 0.2130012229676694 12.729577740948839 2 -1 0
4205 2095 4 0.417 3.6683858586618743 2.1977325497380544 14.089341551493744 0 -6 0
1112 1064 4 0.417 1.81568715490054 9.647767222257094 12.372853609750786 -10 -3 0
1751 1277 4 0.417 6.283472537917419 2.022476060049918 14.580373044079142 9 -3 0
2343 1475 3 -0.834 6.646449772893337 0.39619109893600835 12.284737001236774 0 -5 0
3792 1958 3 -0.834 0.9644029896553505 4.38497443030885 16.552326947237557 -1 -15 0
1110 1064 3 -0.834 2.556324599600462 9.25412897221526 12.833963597428877 -10 -3 0
4350 2144 3 -0.834 1.3482567013297468 0.18790053419436428 15.976312478284008 0 -3 0
1750 1277 4 0.417 6.437228654054281 3.512144961396655 14.358674411219878 9 -3 0
1900 1327 4 0.417 10.222191320691477 6.486388300783887 17.04675984431766 3 -6 0
4204 2095 4 0.417 2.659666512109395 1.9092190617073892 12.997840810714617 0 -6 0
3793 1958 4 0.417 0.5942628959893905 4.534268917814635 17.422604584477092 -1 -15 0
1749 1277 3 -0.834 6.67562409655794 2.6629424158746757 13.98663848358529 9 -3 0
2060 1380 4 0.417 1.6617173433280235 7.374178328860527 12.524247931301153 -6 -9 0
4351 2144 4 0.417 1.3400745585293992 0.6838729740318688 16.79520574057756 0 -3 0
1608 1230 3 -0.834 2.683275494495998 7.168255633140006 17.44630181641277 -2 1 0
2205 1429 3 -0.834 5.504450954728502 8.449778301704876 16.021442285691023 8 -14 0
1224 1102 3 -0.834 5.475354101799425 5.039830726714389 15.939332712768403 -11 -1 0
2059 1380 4 0.417 0.884914864102289 6.076322607232385 12.587900767419839 -6 -9 0
2113 1398 4 0.417 10.218434774143386 9.341122249719502 15.694779090250677 -8 -5 0
3704 1928 4 0.417 6.250800636796473 1.1800364246248072 16.582640368654335 -4 -3 0
3974 2018 4 0.417 5.892882673370125 2.897488997677639 22.908318236697532 -2 -6 0
3095 1725 4 0.417 9.469101363187523 2.267627676221195 18.313905102169823 -10 -7 0
3744 1942 3 -0.834 1.4302685119175285 2.2231048479257605 23.120330459850734 -4 -11 0
4279 2120 4 0.417 9.426765101582218 5.876545179178422 20.18970441539408 -2 -8 0
974 974 1 -1 2.050456308052251 5.57356936817451 21.158334052994572 -4 -5 0
1011 1011 2 1 0.26211648713711405 4.655165615511071 23.282574170185743 0 -4 0
4068 2050 3 -0.834 10.246183698252414 0.5521850989673528 20.222744689736956 5 -3 0
1035 1035 2 1 3.1172388477976196 2.729638608816193 21.300874247731105 0 -4 0
996 996 1 -1 1.5250995969016652 1.6850027600846966 19.004918214351246 -2 -1 0
3972 2018 3 -0.834 4.940811748148476 2.832545911177644 22.98283630941769 -2 -6 0
3973 2018 4 0.417 4.75729986856357 3.0395191293297597 23.899456420193683 -2 -6 0
2327 1469 4 0.417 8.205847142139334 7.924691537237278 19.111967817050363 -2 -3 0
3969 2017 3 -0.834 8.286086684150689 8.353074497034093 22.096898445702127 10 -1 0
964 964 1 -1 8.204985093752494 2.846936459129863 23.511349492302713 -3 -3 0
4280 2120 4 0.417 8.047336926746501 5.2950560894517285 19.96397089567068 -2 -8 0
3093 1725 3 -0.834 9.815620077243542 3.110603877664531 18.60624588713173 -10 -7 0
2326 1469 4 0.417 8.493948360825536 9.004734634135444 20.13304530693692 -2 -3 0
995 995 1 -1 8.150714410265834 0.6122262883071984 17.68667002181627 -1 -5 0
3746 1942 4 0.417 1.544936153772942 2.01562752717431 24.0479736042593 -4 -11 0
3970 2017 4 0.417 8.375133966402954 9.015561811861435 22.78227558492881 10 -1 0
3483 1855 3 -0.834 3.631883410290658 7.626851862896082 23.182482236697666 -2 -8 0
3484 1855 4 0.417 3.359883087499476 6.911524365458111 22.607660180750912 -2 -8 0
3012 1698 3 -0.834 0.5004696626603068 9.127393833297397 19.484343411657974 -1 -8 0
3518 1866 4 0.417 0.661866195539812 0.2172344310660617 20.73973317236388 0 1 0
2713 1598 4 0.417 8.611804968874111 5.5037472397312275 22.86478029892185 4 3 0
3971 2017 4 0.417 8.205224614882777 7.525977826219097 22.5720929269257 10 -1 0
3485 1855 4 0.417 3.792449513603706 8.362218370000342 22.59125362395149 -2 -8 0
3094 1725 4 0.417 9.196998009500106 3.7560526892623143 18.26443008821952 -10 -7 0
2980 1687 4 0.417 5.91553178268699 9.195250149028908 22.465055218233708 5 -6 0
3745 1942 4 0.417 1.0402979716002108 1.433955208886757 22.744431608568725 -4 -11 0
2091 1391 3 -0.834 7.315387198802902 5.284054721124414 18.144103643690123 -5 -1 0
3253 1778 4 0.417 7.554616450699892 0.29032826437916615 20.418049577258227 7 -1 0
2618 1566 4 0.417 0.9282305879917453 7.7928406764596145 24.004917601719296 3 2 0
1610 1230 4 0.417 2.792398597456739 6.693752309412869 18.270671151721917 -2 1 0
1013 1013 2 1 9.901148610208876 2.93283042716237 21.25311774718581 -8 -8 0
1515 1199 3 -0.834 4.931630952165057 9.106604165306512 18.613131945128256 4 -3 0
3516 1866 3 -0.834 0.32346729132021296 0.06542936723150986 21.62207152490933 0 1 0
2616 1566 3 -0.834 0.4492723224544692 6.971590851172604 24.116027683023066 3 2 0
3239 1773 4 0.417 10.121298718818027 7.159223310510746 22.907936154812997 -11 4 0
1516 1199 4 0.417 5.032886538832448 9.220191185738392 17.668184354533523 4 -3 0
1170 1084 3 -0.834 0.8385059298323344 9.282996966477581 22.641798816416973 0 -4 0
2712 1598 3 -0.834 8.6610072908896 6.200895339897327 23.518732940288185 4 3 0
3013 1698 4 0.417 0.47789149704042083 8.485073952131078 20.193912689581442 -1 -8 0
2325 1469 3 -0.834 8.726308223748713 8.716011969605994 19.2502452621755 -2 -3 0
1348 1143 4 0.417 3.099200101629757 3.256251949366806 18.01803005167474 -4 -1 0
4278 2120 3 -0.834 8.721858910136365 5.405534863023352 20.633972896712315 -2 -8 0
3254 1778 4 0.417 7.302675439344406 0.5454395888154986 21.88902041619827 7 -1 0
2714 1598 4 0.417 8.38573257481004 5.783864341049179 24.33540394552082 4 3 0
1517 1199 4 0.417 4.887361678888327 8.158551672310605 18.73770023911668 4 -3 0
3026 1702 4 0.417 0.27688549872390655 4.83845056565675 19.656847735038873 2 -4 0
4069 2050 4 0.417 9.527221182178952 0.4205350856151451 19.604801604778636 5 -3 0
4259 2113 4 0.417 0.5271902270140275 9.474225342310653 17.696518718170903 -6 -6 0
1171 1084 4 0.417 1.5042268861409611 9.635596824815694 22.051385368064953 0 -4 0
1609 1230 4 0.417 2.3266722917586433 8.01828730704103 17.704396481913104 -2 1 0
3206 1762 4 0.417 0.49696846035661624 0.013055363545710748 30.873648727046685 6 2 0
3176 1752 4 0.417 2.0432148055220547 6.78260229049118 26.091442366600596 0 -9 0
2285 1455 4 0.417 6.260997983213272 3.864306516221001 26.21687538812281 -12 -1 0
2283 1455 3 -0.834 5.711643413390962 3.6352561759892263 25.466982425458333 -12 -1 0
4158 2080 3 -0.834 6.24161219183508 0.48068825403965487 30.375474158056836 0 -5 0
3086 1722 4 0.417 7.592791199802781 9.588745426979393 24.692428051822933 4 -15 0
1169 1083 4 0.417 10.062058580116275 5.13545999575831 28.373526978873958 0 2 0
3059 1713 4 0.417 10.625331360150092 9.099660719120388 28.564445446482626 -4 -4 0
2284 1455 4 0.417 6.3217988846176185 3.274733288809314 24.82368860345747 -12 -1 0
1567 1216 4 0.417 2.335825839067073 9.230607010241807 28.809729134607124 0 -14 0
2039 1373 4 0.417 6.517815397340827 8.101176217495464 29.186240146410913 -7 -1 0
1637 1239 4 0.417 10.36055910091659 8.347100653882984 26.68994523055621 -8 -15 0
3132 1738 3 -0.834 0.22523940902247136 3.230120216101013 28.621194738493813 1 0 0
2928 1670 3 -0.834 7.4605729297913665 8.372623562735349 30.89069485127747 -1 -11 0
1566 1216 3 -0.834 3.195800402669275 9.32181796784982 28.399205622717545 0 -14 0
2894 1658 4 0.417 5.496126876241198 1.1371519342816898 25.8166074084793 -3 -7 0
1635 1239 3 -0.834 10.378616192075345 7.791245084005153 25.910638106112287 -8 -15 0
2512 1531 4 0.417 7.6660589731537785 3.1531757516924706 30.610831406933336 1 2 0
3057 1713 3 -0.834 9.813208024432063 8.646988804514132 28.336699506357938 -4 -4 0
2892 1658 3 -0.834 5.865307293977716 0.40625711937727704 25.32067365378517 -3 -7 0
1748 1276 4 0.417 8.615218508761005 0.2006490459210578 30.081988255338164 -9 -3 0
2893 1658 4 0.417 6.6848357498207704 0.7482381111574986 24.96352693069622 -3 -7 0
2536 1539 4 0.417 6.017386201549579 9.709269136494438 28.369456218664286 -6 2 0
1630 1237 4 0.417 8.879441385396726 6.865837247696824 31.052364245551647 -3 -2 0
4153 2078 4 0.417 9.098758028531584 2.8153373572830582 25.57684166993744 1 -1 0
2411 1497 4 0.417 6.321745361149428 7.787845934389424 25.857102263273756 -3 -14 0
4322 2134 4 0.417 0.42453261745943477 8.359546044456954 29.891479108616444 0 -14 0
3344 1808 4 0.417 4.711541598845916 2.5958474002047613 27.755698907838966 0 -5 0
1203 1095 3 -0.834 1.6059940518512963 1.997130590412014 25.81293972880934 -8 -6 0
1205 1095 4 0.417 1.9322984376124996 2.6609228542870076 26.420735280336846 -8 -6 0
3342 1808 3 -0.834 5.094122232617111 1.7952912880397145 28.114693510406727 0 -5 0
1204 1095 4 0.417 2.0198453765822695 1.1836341270934663 26.10156607141819 -8 -6 0
3343 1808 4 0.417 4.491161544380236 1.1009867284280384 27.849107706318414 0 -5 0
4040 2040 4 0.417 7.861718273141567 5.697575621505216 26.937757561489438 -2 -10 0
1568 1216 4 0.417 3.5474566874101363 8.431793833351659 28.378710144180733 0 -14 0
4131 2071 3 -0.834 2.255148353958739 5.120715417698595 29.470268613595646 5 -4 0
4321 2134 4 0.417 0.061661957743635795 9.190879761793958 28.679298654037147 0 -14 0
1636 1239 4 0.417 9.484737990342579 7.45780132624793 25.833134070746006 -8 -15 0
1550 1210 4 0.417 6.724076727597086 5.057492293924845 29.425433538690832 -15 -3 0
2409 1497 3 -0.834 6.2327995639323435 8.458489838182963 25.179697233950684 -3 -14 0
1574 1218 4 0.417 4.1696154013081035 5.043805640003917 29.66623938785502 6 -5 0
4133 2071 4 0.417 1.5037133257884736 4.544826410228001 29.611637136279473 5 -4 0
2410 1497 4 0.417 5.482271808034972 8.174556778806629 24.65797556173983 -3 -14 0
4152 2078 3 -0.834 9.641809425620526 2.8660978272567337 26.363352882276597 1 -1 0
2423 1501 4 0.417 7.257805813167477 1.0934972583786062 28.008744184495363 -5 -5 0
2421 1501 3 -0.834 8.151161483567044 1.0835308039354616 28.352191275638102 -5 -5 0
1549 1210 4 0.417 8.128238705224561 5.621334724331769 29.473485453060547 -15 -3 0
1548 1210 3 -0.834 7.535108394847809 5.113200105684571 28.919882550502084 -15 -3 0
2038 1373 4 0.417 5.638462061653868 6.930264044831881 28.802014920210325 -7 -1 0
2422 1501 4 0.417 8.53665956364603 1.9030031683031883 28.042351851524923 -5 -5 0
1573 1218 4 0.417 5.049321820491587 5.1823764440374696 30.890615338278252 6 -5 0
1572 1218 3 -0.834 5.073498894428088 5.209750462305574 29.933849256606855 6 -5 0
4159 2080 4 0.417 5.984832353921812 1.078370212926241 29.67338726257503 0 -5 0
4320 2134 3 -0.834 0.8112059304571596 8.878431110963248 29.185922304668157 0 -14 0
3659 1913 4 0.417 0.4673053048177271 7.323730056648915 27.665341964727588 -1 0 0
3657 1913 3 -0.834 0.2580916874737429 6.430445392108222 27.392185934660386 -1 0 0
3175 1752 4 0.417 3.295689210599808 7.282048952628366 25.403075489631615 0 -9 0
3907 1996 4 0.417 2.893616448665022 4.084154567743218 28.047941584690744 3 -3 0
3908 1996 4 0.417 3.5473083785343897 4.325180710292569 26.703749785119197 3 -3 0
4039 2040 4 0.417 9.329215875058287 5.8062996509365306 26.5820118244991 -2 -10 0
3174 1752 3 -0.834 2.9976172745092944 6.712531226080091 26.11222119475761 0 -9 0
2037 1373 3 -0.834 5.815890531123527 7.846085326336754 28.587292396877032 -7 -1 0
3906 1996 3 -0.834 3.3756354074294364 3.640293508032919 27.34993399419091 3 -3 0
4132 2071 4 0.417 1.9028318715115218 5.85658901442685 28.969799485879726 5 -4 0
1629 1237 3 -0.834 9.464693139281039 6.298589641366733 30.550206149258862 -3 -2 0
3133 1738 4 0.417 0.4601452279537074 2.3022071688123313 28.615936981430686 1 0 0
4038 2040 3 -0.834 8.456495727907887 5.766167345281407 26.190671421575235 -2 -10 0
4162 2081 4 0.417 0.18958038713282 4.9824147144986215 26.011501359563855 0 1 0
4154 2078 4 0.417 9.43359876287273 3.719290865709572 26.74427916134824 1 -1 0
3058 1713 4 0.417 9.594667137190255 8.138893557471103 29.11816839103597 -4 -4 0
3186 1756 3 -0.834 0.05999081210336433 6.708719974362448 31.039160441999726 1 -8 0
2537 1539 4 0.417 7.467830721364979 9.777945925746996 27.941156948150116 -6 2 0
3797 1959 4 0.417 7.274765677555834 4.465928370127483 36.04039064968038 -9 -7 0
3785 1955 4 0.417 7.71723867393413 4.827824020663166 32.73711333878082 4 -12 0
2216 1432 4 0.417 10.355774423583991 2.6500360532949414 37.648270777665225 -1 -7 0
3795 1959 3 -0.834 7.916156839400788 5.164246755531277 36.17138718837845 -9 -7 0
3791 1957 4 0.417 4.065598499796997 1.1573984942656805 34.996108541629575 -2 -9 0
2579 1553 4 0.417 6.789067461236972 7.904656258031782 36.0144317405323 -2 -11 0
3796 1959 4 0.417 7.409280366281419 5.8905877773319375 36.53455495723909 -9 -7 0
3784 1955 4 0.417 8.192572811013923 4.86455310130248 34.174122394348935 4 -12 0
2389 1490 4 0.417 2.4979901466804155 6.537295348613598 31.860530546605812 2 9 0
1314 1132 3 -0.834 10.145827462646885 3.358591261750928 34.43238639024849 -4 6 0
2511 1531 3 -0.834 8.12744498774881 3.1330734852677455 31.44916097227565 1 2 0
3196 1759 4 0.417 2.7827222222529002 4.330882709843257 36.66163100291927 -2 -9 0
4230 2104 3 -0.834 6.920965024789351 9.26242460997288 34.67092886301232 -3 -6 0
2929 1670 4 0.417 6.632029930394109 8.473934917251537 31.359409655701654 -1 -11 0
1328 1136 4 0.417 4.74615672240247 4.91557646967472 35.40163057063254 -8 0 0
3934 2005 4 0.417 1.0238714612848472 4.32083577607123 33.28604808079059 -1 -15 0
4175 2085 4 0.417 6.482815255620179 2.6052843098877942 35.94508428012561 0 -5 0
2790 1624 3 -0.834 9.986569281181819 8.632214302994713 34.37396402229253 4 -6 0
4395 2159 3 -0.834 5.070907854162273 8.820186705123927 32.4139409036037 -6 -10 0
4173 2085 3 -0.834 5.705222210620196 3.134590671084382 35.76764993668873 0 -5 0
2930 1670 4 0.417 8.065843476307855 8.959568622639521 31.344095424872577 -1 -11 0
3783 1955 3 -0.834 7.892629628546145 5.428727808061351 33.46116051538373 4 -12 0
2215 1432 4 0.417 9.806672612922354 1.2907177830008685 37.270561621675014 -1 -7 0
2214 1432 3 -0.834 10.500768573842546 1.7126754197041545 37.77681460544949 -1 -7 0
4231 2104 4 0.417 6.729656133443502 9.042943745666644 33.75916851856309 -3 -6 0
3852 1978 3 -0.834 10.21986846395229 4.20849769023944 37.08232074474949 -10 -7 0
2840 1640 4 0.417 0.5939679526172753 7.808351264989652 35.996214960860875 0 -11 0
1327 1136 4 0.417 5.059587881085219 6.381897549159479 35.61037030297661 -8 0 0
3633 1905 3 -0.834 4.684102795954727 3.747304965917688 32.759044661102784 -4 1 0
1326 1136 3 -0.834 4.329683804457076 5.768710621219883 35.52373187865733 -8 0 0
4264 2115 4 0.417 2.703025513537024 8.843389387874677 34.11503211759931 -6 -11 0
3789 1957 3 -0.834 3.2984484143311827 1.1210801470442253 34.42456861229506 -2 -9 0
3029 1703 4 0.417 6.84569114590312 0.5272969243355654 37.39838390665285 -5 -6 0
4232 2104 4 0.417 6.120044092840197 9.677558493445241 34.991169611903445 -3 -6 0
3935 2005 4 0.417 0.7702868097004907 5.238454287796323 34.4632630084134 -1 -15 0
3933 2005 3 -0.834 1.0013383966018643 5.245015899802323 33.53413005958568 -1 -15 0
3105 1729 3 -0.834 6.9600028874620365 0.7591542951631015 32.93875278733721 -9 0 0
2052 1378 3 -0.834 1.9753500329104 7.276472428291401 34.919290252083485 3 -3 0
1706 1262 4 0.417 0.8424535931859981 0.12345914129943826 36.77287076764643 1 -1 0
2390 1490 4 0.417 3.6465209246187555 5.662899168374135 32.316865772210456 2 9 0
1315 1132 4 0.417 10.033112804596351 2.408208200341518 34.449920761671564 -4 6 0
2578 1553 4 0.417 6.659462939823697 7.967623857919263 37.521603093966704 -2 -11 0
2109 1397 3 -0.834 9.96451763579616 0.3020061380006364 34.15172510304674 -6 1 0
3106 1729 4 0.417 6.667852021199496 0.6182147662114397 32.03827301259505 -9 0 0
3853 1978 4 0.417 9.433610202754382 4.745592739860141 36.98467987079905 -10 -7 0
2577 1553 3 -0.834 6.477491474730305 7.404762816634957 36.76882752091482 -2 -11 0
2388 1490 3 -0.834 3.4108979658396335 6.574762561387196 32.14574022755469 2 9 0
2053 1378 4 0.417 2.8075136447409026 6.885778590685801 35.18612862139335 3 -3 0
4397 2159 4 0.417 4.957416001761508 7.870708234249396 32.371140446473554 -6 -10 0
3634 1905 4 0.417 4.412038577978945 2.9297375549488582 32.34228684533095 -4 1 0
2839 1640 4 0.417 0.7849395196289701 7.9637590699186935 37.49010162863884 0 -11 0
3292 1791 4 0.417 8.504172782757545 9.31811395088999 37.433160688400534 1 -2 0
2662 1581 4 0.417 3.4871445964587457 1.920319168216817 37.53137705232959 -3 4 0
2661 1581 3 -0.834 4.192202627871541 1.4768810552384544 37.05947685447446 -3 4 0
2663 1581 4 0.417 4.618078293602388 0.9320161861048583 37.72151857644813 -3 4 0
2111 1397 4 0.417 9.665962569232267 0.4676699199574034 33.25757822359558 -6 1 0
4174 2085 4 0.417 4.9812200509669236 2.628361857411518 36.1363450138654 0 -5 0
1129 1070 4 0.417 10.116988270969266 6.923876043429002 36.84525173093419 -1 -8 0
2054 1378 4 0.417 1.639683445312604 6.687975777047359 34.2432053163608 3 -3 0
4000 2027 4 0.417 3.4638470385678866 0.23220954336566252 32.72703691702033 -3 -1 0
4263 2115 3 -0.834 2.6735438826693803 9.785908728267033 33.95046329084954 -6 -11 0
3107 1729 4 0.417 7.673274860331813 1.39301111697459 32.863402568870555 -9 0 0
1783 1288 4 0.417 1.8411836163159474 2.2980160111490395 33.54228879123039 -1 -5 0
4396 2159 4 0.417 4.184150517724206 9.171715423776176 32.33458207731664 -6 -10 0
3028 1703 4 0.417 7.079659816816695 0.1761966467036034 35.94432773147236 -5 -6 0
1784 1288 4 0.417 0.8804902388508322 1.8658502485144068 32.45489524787792 -1 -5 0
2792 1624 4 0.417 10.248670375119701 8.018124422250802 35.06007710733689 4 -6 0
2838 1640 3 -0.834 0.2732574523298521 8.29828882577002 36.75330948015844 0 -11 0
3187 1756 4 0.417 0.20844513807117318 6.087994273312555 31.75277212050216 1 -8 0
1631 1237 4 0.417 9.877109434069991 5.73777801647553 31.20743475150518 -3 -2 0
1128 1070 3 -0.834 9.49514283563941 7.526546594619673 37.252954429643935 -1 -8 0
3027 1703 3 -0.834 7.305253888730089 0.8233882156296063 36.612412497164904 -5 -6 0
3195 1759 3 -0.834 2.48867066986689 3.732573938354141 37.34839977077842 -2 -9 0
2791 1624 4 0.417 9.043203485091423 8.739474192761604 34.49575465738766 4 -6 0
2513 1531 4 0.417 8.917837317646423 2.621699677671248 31.276085941399735 1 2 0
3635 1905 4 0.417 5.003769618976821 3.4821511045142475 33.621700135698326 -4 1 0
1316 1132 4 0.417 10.426088095007414 3.583263949312516 35.319892983157835 -4 6 0
1782 1288 3 -0.834 1.0723571044714846 2.589078014986903 33.05174081081534 -1 -5 0
3790 1957 4 0.417 2.7752358927523284 0.3982609064210257 34.77120670550776 -2 -9 0
3204 1762 3 -0.834 0.7465389447532502 0.18947004596989567 31.780660189506605 6 2 0
3372 1818 3 -0.834 9.506823597523493 8.690308122132736 40.2884328783434 -3 -2 0
1451 1177 4 0.417 9.607741772715999 8.619687425488978 44.40630553087561 -5 -3 0
3373 1818 4 0.417 10.413881076555208 8.638509360398308 40.58995541758431 -3 -2 0
3709 1930 4 0.417 9.235690624725446 3.1259352761565387 41.41330992849498 0 -2 0
3629 1903 4 0.417 4.454621260347681 3.6963608748763717 43.738813033379344 3 1 0
1449 1177 3 -0.834 9.025994083883566 8.216420806887408 43.76172923247004 -5 -3 0
4344 2142 3 -0.834 3.984138225237372 6.399974306389056 43.384024322325544 -6 0 0
3916 1999 4 0.417 8.242107397965993 7.329554505738706 42.60692440556263 -1 -11 0
2122 1401 4 0.417 1.69659822850112 4.15011732619281 39.663510525122526 0 -7 0
2296 1459 4 0.417 9.698802485074838 2.687613685577738 44.17782288301477 2 -6 0
2087 1389 4 0.417 6.438566528035739 0.29996012115573456 41.962341607029344 1 -15 0
3628 1903 4 0.417 3.1095111223686627 3.0366558942517963 43.95646306566036 3 1 0
3917 1999 4 0.417 8.632163406252864 5.980250529596457 42.041957226258695 -1 -11 0
3293 1791 4 0.417 8.69205309547025 9.573309779214934 38.91366543979748 1 -2 0
2086 1389 4 0.417 6.983823200942567 1.651336491266319 41.55197129265391 1 -15 0
2295 1459 3 -0.834 9.1035756475209 3.407500005380221 43.9685778848563 2 -6 0
2435 1505 4 0.417 1.8711828650508326 8.301582688653992 42.4985263411342 1 -4 0
1730 1270 4 0.417 4.780856769553281 5.41711978870249 38.437789566085726 7 -3 0