Pt-111/task.004/system.data (written by ASE) 

597 	 atoms 
3  atom types
0.0                  16.869  xlo xhi
0.0      14.608982536439697  ylo yhi
0.0                  27.887  zlo zhi
    -8.4344999999999963                       0                       0  xy xz yz


Atoms 

     1   2     0.61639326000000128      7.1201259086099782      8.8808940200000013
     2   2     0.47570580000000251      8.3916917485816906      8.0236476400000001
     3   2      1.3566893250000029      8.6103882171521935      6.0372566299999999
     4   2      1.2044466000000023      10.110000274517727      6.2804312700000002
     5   2      4.8681403649999995      5.1241006246562231      6.0782505200000001
     6   2      6.1470636000000018       6.380327032964674      5.8529235600000007
     7   2      2.0105317650000014      6.3927446681206472              5.32390717
     8   2      1.0376121900000004      5.9946498940026647      6.3546106899999995
     9   2             7.105475835      8.5475695922454999      6.4577925900000004
    10   2      5.6161961700000029      8.5003825786528004              6.29047059
    11   2      4.1321458950000007      4.6215516254026987      7.6209593600000005
    12   2      3.0957145350000004      5.5690902327161771      6.7812817900000004
    13   2      1.0150920750000016      12.662627793109836      6.3264448199999999
    14   2      2.3919398550000008       12.07505451549423      5.9934740399999997
    15   2      8.3073077400000024        10.0001407258437      5.7413755600000007
    16   2      8.9274965250000005      10.068072494638145      7.3610525199999994
    17   2      2.7065467050000009      2.4138421844959308      5.5238569599999998
    18   2      3.1390678650000012       3.038814457404821      6.8610386100000005
    19   2      6.5223145049999998      3.4855571433691468      5.8336815299999998
    20   2      7.5922308299999974      2.4540168864711402      6.3928158799999997
    21   2      3.9173191799999993      9.4344809220327548             10.99277653
    22   2      3.0895573500000006      8.3428977469099834      11.853927090000001
    23   2     -2.2954491749999977      9.2111095790505946      5.3877684000000006
    24   2     -1.3859570399999981      9.1011039405512015      6.5595801400000004
    25   2      8.8974697049999989       6.487995234258233      5.7335672000000004
    26   2      9.6864328350000015      5.4560167078841344      6.4140099999999993
    27   2      8.6785944300000004     0.33542223903665541      6.3861230000000004
    28   2     -1.2889602899999983       14.38254330712488      6.0057443199999989
    29   2      12.812005500000001     0.75937491224413534      6.9753753100000004
    30   2      3.3866204400000028      14.316802885710901      7.8462863199999999
    31   2     -2.9694500699999971       11.55044595261068      5.9064665999999999
    32   2     -3.1125835349999971       10.92474323057497      7.1700265700000001
    33   2      4.7279589750000008    0.045433935688327459      6.0537099599999999
    34   2      5.9572030050000002      1.1852267531813523      5.6864381700000006
    35   2     -2.4776343749999983      6.9277256086050683      6.6549536800000002
    36   2     -2.8722002849999981      5.8194881933907521       5.640703489999999
    37   2      3.0870269999999995     0.69772500594035991      6.7737522999999991
    38   2     -5.4771112649999969      13.714474535733492       6.391142659999999
    39   2      3.8645192100000036      13.386210698139694      6.3442924999999999
    40   2      4.6149366750000036      11.872574017539176      6.4257225400000006
    41   2             16.46380662    0.065740421413978636      6.8359403099999998
    42   2      15.127950510000002     0.81634994413625017      6.9597585899999999
    43   2     -4.9933083449999973      10.591074069442685      5.9775784499999993
    44   2      11.390454870000003      9.1098693300730673      6.1097628299999993
    45   2      9.3736815750000044       12.92295986190919      7.3613313899999984
    46   2      9.1410580650000046      12.479138972452153      5.8629628800000004
    47   2      6.6593751300000026      10.974559861024227      6.9533445800000004
    48   2      6.5331950100000036      12.351602554909036      7.6474520099999994
    49   2       7.454579790000003      7.0613977988134913      21.507569880000002
    50   2      5.9428643549999975      7.6310020279092736      21.983879839999997
    51   2      3.7008055650000009      7.2666540034504692      21.276944389999997
    52   2      3.9389114999999992      8.8197349368993727      21.632503639999999
    53   2     0.33375316500000246      8.6022071869317855      19.324854389999995
    54   2     0.13309641000000236      7.8383034901013557             20.69354835
    55   2      3.5562382350000012      5.1211788281489357      20.969350780000003
    56   2      3.1783726350000014      5.9419114670461166             19.65001681
    57   2      2.8129900950000026      10.608604848486415             20.19827523
    58   2      1.7439172200000022       9.643389372303842      20.743466079999997
    59   2     0.12440887500000131      6.0009317564933351      22.158173590000001
    60   2      1.2715008750000014      6.0380385721358918      21.015085460000002
    61   2      9.8999943750000021       6.612755945119428      20.756572969999997
    62   2      10.328213939999999       7.432173775588331      22.079253380000001
    63   2       0.464993985000001       12.70820781862353      21.679911539999996
    64   2       1.723337039999999      11.643651261193165      21.692460689999997
    65   2      2.2943526900000002      1.5970539708835878      16.956132609999997
    66   2      2.6296240649999993       0.681216855674183      15.722411730000001
    67   2     -1.3961627849999976      9.5365977099624679      20.132183040000001
    68   2     -2.5469659649999978      10.227602583936067      19.209959949999995
    69   2      7.4866308900000016       9.681957086200045      21.151731759999997
    70   2      8.2979454450000016      11.092454350093298      21.014806589999999
    71   2      5.1911817150000008       4.014986670489721      22.060569089999998
    72   2      4.1356040400000005      3.2011202533846661      21.175156839999996
    73   2     -3.4254191399999958      13.552753099055105      20.988871679999995
    74   2     -4.1790417149999959      14.564132960052826      21.714491420000002
    75   2      11.317918170000002      4.2687446971476799      21.016758679999995
    76   2            10.502048985      4.2127922940331146      19.667864489999999
    77   2     -3.4880874749999973      10.509555946889352      20.818203239999999
    78   2     -4.1473279949999968      10.691291689642661              22.2705582
    79   2            10.024824975      1.7523474552459415             21.67879606
    80   2      9.6640814099999979       3.353053671763639      21.471595650000001
    81   2     0.03947346000000089      4.4358714573645504             20.17317693
    82   2      1.0793629649999998      3.1407851555091697      19.981035500000001
    83   2     0.32202921000000012     0.48326514230542517      19.826541520000003
    84   2      15.764839605000001     0.20730146219207926      19.575558520000001
    85   2    -0.66059003999999932      2.7511635912623231      21.541592020000003
    86   2      15.282470549999999      1.4977128896357979      21.690508599999998
    87   2     -4.0986609299999985      8.8165209607413555             21.61577144
    88   2      12.125437200000002      7.4128899186402313      21.342478840000002
    89   2      8.0331021450000044      12.428007533574615      17.480129340000001
    90   2      8.8820345700000036      13.700011643022419      17.740315049999996
    91   2      3.6862138800000022      14.566032127782561      21.635850080000001
    92   2      2.2002236700000037      13.970277819946554      21.382636120000001
    93   2      5.9248988700000043      13.999203605368702      20.935049769999996
    94   2      13.755741704999997     0.55908576166954704      20.025375830000002
    95   2      1.4972924399999998     0.12359199225827983      22.050250899999995
    96   2     -6.5915617499999968      13.800521442873123      20.852504250000003
    97   2    -0.32396914499999974      1.0034910104280426      8.6706260400000001
    98   2    -0.44542594499999971      1.0978650376134429      10.146684950000001
    99   2     0.97544992500000327      12.949256030474782      12.470229790000001
   100   2      2.4971180700000022      12.767082018245379             12.87961095
   101   2      5.3366768400000018      11.044390797548409      9.2501178999999993
   102   2      6.1730418600000023      11.153081627619523             10.55773933
   103   2      9.5169837299999998      4.1480745013966871      12.961877599999998
   104   2      9.6969759599999996      4.1772924664695674      11.430881299999998
   105   2    -0.61360987499999731      10.957467351456593      13.222621050000001
   106   2     -1.0263943049999968      10.886175516678767      14.739952720000002
   107   2    -0.87727234499999951      2.4185170589075917      12.426168329999998
   108   2     -0.5732086199999995      2.6319542937649758      13.952702710000002
   109   2     -1.2862612499999964      12.437503372223299      16.362976119999999
   110   2     -1.8378775499999969      11.096690955028864             16.94330459
   111   2     -7.3553057249999965      12.755833101692319      15.735518620000001
   112   2     -5.7699571049999969      12.728368214523815      15.397249310000001
   113   2      -4.361479949999997      9.4736329952304121              12.8224426
   114   2     -5.2170756299999974      10.749581529963059      12.168771320000001
   115   2      8.5811759550000009      7.6835943650404595             10.75183285
   116   2      7.1997735450000002      7.3657029050475318      11.511195859999997
   117   2      5.3629081349999996      2.8573708943022407      18.270446919999998
   118   2      4.8818886000000008       2.646855455952144      16.855739410000002
   119   2     -4.2234915299999969       10.60319952494793      17.523911930000001
   120   2     -3.3242051399999979      9.2144696450339723      17.323404400000001
   121   2      1.6249064250000025      13.644059239907852      16.065142960000003
   122   2      1.2529449750000023      13.862901798303721      14.579323600000002
   123   2            10.360518075      8.3275583152467192             19.60372439
   124   2      10.999515795000004      8.8908806818518329              18.2966607
   125   2      7.8445067250000013      5.1968533576876936      20.078918870000003
   126   2      7.4952340799999986      6.6520541081424511      19.491897520000002
   127   2      6.4904320950000027       8.430989911604712      17.968709580000002
   128   2      7.9561795050000024      8.6100960375014637             18.23084738
   129   2      4.8753096899999999     0.25478065543550826              11.9467908
   130   2      3.5301756300000005     0.97763311133854447      12.141442059999997
   131   2      9.2669851500000018      6.1024641851215904      14.487575370000002
   132   2      8.3488898250000005      4.9558051458364369             15.01491854
   133   2      6.1103735250000017      3.9574272792961489      19.956773810000001
   134   2      7.1181275850000008      2.9304158069844388             19.79028842
   135   2       3.083568855000002      11.011228407190691      13.986445979999999
   136   2      3.7017333600000004      10.667479048108264              12.6746415
   137   2       3.205278690000001      2.6874684274034464      18.963438870000001
   138   2      2.4357149100000006      1.6654240091541253      19.795029209999999
   139   2    -0.84058226999999941      3.1467748383491103      18.402910170000002
   140   2    -0.28668865499999879      3.7832882074617871      17.111742069999998
   141   2    -0.29723177999999856       12.20726580744901      8.6402292099999976
   142   2      1.1642983800000017      11.975567344421078      9.0334359099999979
   143   2     -2.3001724949999973      11.002755197319559      9.8572178900000011
   144   2      -2.642781884999998      12.504558602065559      9.6569892300000006
   145   2     0.60011467500000126      4.8754557418860207      8.4263359199999996
   146   2      1.5825652350000003      4.3308328729275472      9.5501820199999976
   147   2      10.295909804999997      1.9805397624651297      11.947627409999997
   148   2            10.402353195     0.45565416531155412      12.090687719999998
   149   2     -2.9600877749999985      6.7790061663841117      18.249531670000003
   150   2     -3.1981093649999983      6.5923033695684135      16.688417409999996
   151   2      3.3777642150000031      13.886276170362024      17.752027590000001
   152   2      3.6442100700000029      13.159479289174149      16.307480990000002
   153   2      8.5479440249999996      1.7044299925264192               8.2935938
   154   2      9.4024432200000003      2.8323895341649279       7.426029230000001
   155   2     0.43074991500000109      7.8174126450742447      14.932373020000002
   156   2   -0.054655559999997799      9.0336104412328506             14.10273477
   157   2      4.9156266000000013      4.2579340500707143      9.6416513800000008
   158   2      6.0557179650000013      4.8097153204720406      8.7484307700000006
   159   2      4.2863285550000016      9.3545697875584288      16.981230910000001
   160   2      4.6064178300000007      10.125193616355624      18.308373240000002
   161   2      13.322630130000002       3.428728201302397      21.386819169999995
   162   2      13.585617839999999      4.6672777407417545             20.58980871
   163   2     -2.8687421399999979       7.338384107704389             11.86424528
   164   2     -2.0216653049999982      6.4447526459503726      11.004210200000001
   165   2     -6.5641496249999962      12.364604549366465      13.438187559999998
   166   2     -6.2072015849999973      13.192641679531867             12.08594693
   167   2      3.7892834700000031      9.7403930163458039      5.5470031699999991
   168   2      3.1577924550000014      9.0325878124553007      6.8141884500000005
   169   2      13.224115170000001      4.6652324831866521      7.6304409399999997
   170   2      13.094476904999999       3.771601021432637      8.8675082599999975
   171   2     -6.3472142849999971      12.205074460068543             22.01260345
   172   2     -5.9108132549999972      11.213416725495016      21.077273470000002
   173   2      13.392720825000001      4.3907297013269497      11.263280430000002
   174   2            12.437260665      3.0849788422199702      11.171253330000001
   175   2      3.4978714950000001      4.2753187392890766      13.889956960000001
   176   2      2.6701096650000009      5.6330775762257819      13.681362199999999
   177   2      5.7124338150000007      5.6818715778974918      12.300397960000002
   178   2      6.9760062600000019      5.8771936744096891             13.31464815
   179   2            13.892549295      3.0785508899039375      17.438577709999997
   180   2      12.750602340000002      2.8969612369759918      16.349590360000001
   181   2      10.473709065000001      9.6563913667612731      13.837529399999998
   182   2      10.489818960000001      10.498014850685564      15.110013210000002
   183   2     -3.0911599049999978      7.8273467531990253      13.985051629999997
   184   2     -2.3761673399999976      9.1431778102561463      13.404723159999998
   185   2      10.793376614999998      7.8621161316357524      10.280821420000001
   186   2      10.533003600000002      8.8886893344713673      11.497810100000001
   187   2     0.11234754000000129      5.2335219038541574      10.736773869999999
   188   2     -0.3022924799999987      4.8513509207008934              12.2535478
   189   2     -6.1738853099999966      13.132598761307099      9.2543009499999993
   190   2     -7.5024877499999967      13.888759697393221      9.3521843199999992
   191   2      6.4383912299999988      1.6321155289710427      15.534174479999999
   192   2      6.5172538050000002      3.0952051299954788      15.629269150000001
   193   2     -4.3643476799999972      14.231778607348826              19.2503961
   194   2     -3.6192439499999964      14.351572264147631      17.953092860000002
   195   2      5.2924800600000026      6.9728673646426671      15.781532169999998
   196   2       4.396651815000002      5.7230689086502515      15.522183070000002
   197   2    -0.67535041499999826      14.350841815020809      15.602776500000001
   198   2     -1.3318918949999963      14.484367915403864      17.016089659999999
   199   2      11.689457895000004      7.3581062341285817      5.6412612300000005
   200   2            10.500024705      7.1939012704189986      6.7796085699999988
   201   2      4.4652243000000045      11.788572367954648             20.02481809
   202   2      3.8897383650000021      12.031811927186371             18.59811917
   203   2      1.4358049350000013      7.4478053869023206      13.091831020000001
   204   2      1.0728684000000013      6.2701753046399187      12.196658320000001
   205   2       6.139472549999998      10.759515638087835      16.814745520000002
   206   2      7.0816062000000031      11.002024748192737              15.5553686
   207   2      5.0757977550000009      2.3001843003624298      8.6483164400000003
   208   2      4.9509671550000007      1.4522789539474701      9.9891233999999987
   209   2    0.093285570000001608      6.3107882760912188      16.460859490000001
   210   2     -1.1597437499999985      7.3962356785486891      16.779607900000002
   211   2      9.6126309600000024      11.197492934530301      9.0666214400000005
   212   2       9.648055860000003      9.6977347873393995              9.38258115
   213   2      5.3103612000000036      12.060883802433883             22.18606059
   214   2      6.3286583850000016      11.527509850028471      21.042414719999996
   215   2      1.2471251700000023      9.4531804196793967      17.717726580000001
   216   2     0.76053886500000167      8.0610904737820608             17.07046931
   217   2      11.300121375000002      2.5204877570119404      15.224071039999997
   218   2      12.638423490000001      2.0508089684654043      14.493431639999999
   219   2      8.1567519149999992      10.405832170880633             11.33550776
   220   2      8.4369460050000029      11.854458879193992             11.86145658
   221   2      7.7572096499999992     0.33805185589321463              19.1806786
   222   2   -0.088140524999997222      13.619223969595906      18.647200290000001
   223   2      11.382863819999999      3.5716040505087774      17.845727910000001
   224   2            10.208359695      4.5999303312487676      17.557655200000003
   225   2      10.685921085000002      4.9023362697530679       9.396245780000001
   226   2      9.1030184700000021      4.8192111591207265      9.4609436200000001
   227   2      7.1576010450000007     0.86616657458550972             10.96461066
   228   2      6.4480065599999996      2.0487637109103027      11.575057089999998
   229   2      4.7882656500000023      12.475194547167316      14.338101050000001
   230   2      5.6355955200000034      12.535091375566719      15.555089730000001
   231   2    -0.94179626999999666      11.867460873651421      11.107949839999998
   232   2     0.42341190000000167      11.094353517823032      11.281685849999999
   233   2      1.7365792050000013      5.3715767888235115      17.103097099999999
   234   2       1.528162710000001      4.7926228109044064             15.61365243
   235   2      3.0735318000000014      2.1957300752268858      9.6218516100000002
   236   2      1.4953525050000007      2.2633696643706025      10.049638190000001
   237   2     0.21136857000000295       11.30121671053902             17.39144868
   238   2      1.7589306300000038      11.314364794821817      17.214645099999995
   239   2     0.56688274500000102       3.938727781649507      5.9385366500000005
   240   2    -0.71128138499999871      4.8050404460603806      6.1568918599999991
   241   2      12.071119019999999      6.1609001152673493             15.06121096
   242   2      12.805173555000001      4.8298757163723289      15.171922350000001
   243   2     0.25497493500000024      1.5703195328419028             15.83479634
   244   2     -1.1741667449999995      2.0565064716546164      16.335089119999999
   245   2     -1.3572797399999965      12.589144610951545             22.06921406
   246   2     -1.3921142249999985      11.671554417837768             20.71502134
   247   2      8.5479440250000032      10.036809272010164             14.45801515
   248   2      7.5520826100000011      10.666894688806808      13.390779659999998
   249   2      10.447899494999998      3.4005328650070679      5.4521873699999999
   250   2      11.293373775000001      3.7529015237859933      6.7277387500000003
   251   2     -6.5082288899999963      11.667902172203657      17.861902369999999
   252   2     -5.0713274699999964      12.339623189229155      17.931340999999996
   253   2      2.7170054850000009      7.2336377029181147      17.834015369999999
   254   2      3.9060169500000028      6.2175829675087337      17.247830629999999
   255   2      7.6704186450000007      3.4580922562006404             12.38712653
   256   2      6.6288422400000018      3.1964453789730052      13.476671620000001
   257   2      8.6093471850000007      6.3795965838378521             17.22356894
   258   2       9.697566375000001      7.2625634883402661      17.974008110000003
   259   2      7.2137748150000007       4.183866508610965      17.734179910000002
   260   2      6.4712857799999988      5.2510526828978836             16.95362278
   261   2      9.6790104749999966      1.3102796436932764      15.919015080000001
   262   2      9.4927767149999998      2.6446641085716784      16.652443179999999
   263   2      7.8192032249999999      1.7508865569922978      21.410244250000002
   264   2      6.6517840800000005     0.89932896494322756      20.711953770000001
   265   2      5.6844312750000032      7.8071863572987397      8.1890175500000009
   266   2      6.0131237400000002      8.4729176914842945              9.42943131
   267   2             12.64247205      6.7677572498310532      9.7651907900000001
   268   2            12.119111325      7.5617554506865519      8.4843408800000013
   269   2             10.52541255      7.9846854951164818             15.02523673
   270   2      10.247327085000002      6.8459153064010065      16.033909520000002
   271   2      11.762922389999998     0.64104215369897399             19.57862609
   272   2      12.340348260000001      1.3843471851530256      18.274072230000002
   273   2     -2.9174935499999979      6.9500773518858203             20.85780278
   274   2     -1.4885205599999982      6.4583389997092597      20.387906830000002
   275   2      1.5754802550000002      2.7533549386427891      12.940404609999998
   276   2       2.468609460000001      2.6938963797194804      11.668757410000001
   277   2      7.5525043350000001      6.2285397044110642      9.4729350300000004
   278   2      7.9416721650000017      5.8601011648420558      7.9257642700000011
   279   2     -3.3198191999999973      13.981672826324976      15.480910310000001
   280   2      -3.880376069999997      14.036310421011262      14.033853880000001
   281   2      2.0329675350000023      9.6616506004743918      10.298947969999999
   282   2     0.77015419500000248      9.6043833889315504      9.4980333300000002
   283   2      4.4265099450000021      6.8012118198395006      9.9330705300000002
   284   2             3.341327175      6.0909230889178021              10.9093944
   285   2      14.035851449999997      1.9897434214630867             10.79589431
   286   2      14.152247550000002     0.82920584876831704      11.774170269999997
   287   2     -4.6640254649999964      14.069472811368977      10.566942039999999
   288   2     -4.2142979249999968      14.251208554122289      9.0211656300000005
   289   2     -2.8558373549999971      8.6848940280880331             10.41356354
   290   2     -2.4875027399999987      8.6543612545868775              8.85802668
   291   2      5.6132440950000033        7.63713780057458      13.920353789999998
   292   2      6.3175248450000012      8.8742264417602925      14.518529939999999
   293   2      14.648617874999999      1.2451235815807551      14.441840690000001
   294   2      5.3697400800000041       14.47195028024789      14.357900819999999
   295   2      9.5611805099999998     0.67084447807331082             10.19799703
   296   2     0.47115117000000323      14.251939003249111      9.1884876300000009
   297   2      3.3687393000000005      14.016734384412432             10.14194416
   298   2      3.7924042350000033      12.615294689691773             10.38121462
   299   2      13.768983870000001      2.5194651282343896      6.8549034699999991
   300   2      13.808372984999998        2.06527186117648      5.2628346400000003
   301   2      3.8807134499999996      9.1402560137488589      14.745808989999999
   302   2      2.3506108050000019      9.0054151049375211      14.811064569999999
   303   1     0.10914243000000143      7.9344305951911291      8.8390635199999998
   304   1      1.2380159100000028      9.2506999217243457      6.7503272199999991
   305   1      5.8555672800000016      5.3991877658173824      5.6833705999999999
   306   1      1.9123541849999997      6.4056005727527134      6.3688330599999992
   307   1       6.380699250000001      7.9522535538855834      6.5224904299999986
   308   1      3.6825870450000004      4.7284893775694359      6.7949464199999987
   309   1      1.3964158200000027      11.883530754441509      5.8016114799999992
   310   1       8.148823485000003      9.8617936612236186      6.7043136699999994
   311   1      2.7606961950000009      2.2034728359711995      6.4697840000000006
   312   1      6.7635412050000001      2.5292531465338044      5.7274320599999999
   313   1      3.1760109750000036       9.313956816107126      11.607127139999998
   314   1     -2.3477430749999981      9.1009578507258393      6.3869596100000008
   315   1      9.1124651100000005       6.229562333188615      6.6081035200000002
   316   1    -0.28533913499999658      14.234262134380018      5.8629628800000004
   317   1              12.0478398    0.057851570844301203      6.9801161000000009
   318   1     -3.5068964099999982      11.644527800145354      6.7361048499999994
   319   1      5.7306523349999994     0.14010014252445666              5.57042825
   320   1     -2.3592983399999992      5.9990325887635976      6.4377139499999991
   321   1     -4.8473071499999971      14.437765261112625      6.7823972700000006
   322   1      3.9566239500000036      12.409161946102605      5.8467884199999993
   323   1      15.752778270000002     0.24952142172239006      7.4394149900000004
   324   1     -5.7288810899999971      9.9878691805130924      5.7430487800000005
   325   1     -7.4367829949999971      13.215139512637984      6.3956045799999988
   326   1      5.9733972449999992      11.577764749953824      7.4012098000000011
   327   1      6.9848624850000007      7.8001740456812465      22.019296329999996
   328   1      4.3907476650000019      7.9217207803844261             21.64533166
   329   1   -0.027665159999997434      8.6970194835932801      20.230903019999996
   330   1       3.050083890000002      5.9549134615035495      20.656458639999997
   331   1      2.4811768650000023      10.192833205499342      21.033490880000002
   332   1     0.30828097500000123      6.2180212369848276      21.205274799999998
   333   1      10.453381920000002      7.2925119025399674      21.113805439999997
   334   1      1.4791582650000024      12.645973553018296      21.965753289999995
   335   1      1.8837612300000002      1.0395751972930489      16.256447780000002
   336   1     -2.0163515699999972      10.324460138152661      20.075293559999995
   337   1      7.4697618900000009      10.571936302319951             20.68155694
   338   1      4.7250069000000003      3.9254336075413456             21.17794554
   339   1     -4.1334954149999961      14.173196587377699      20.814856799999998
   340   1            10.380423495      4.3810877728529007      20.710001679999998
   341   1      -4.355828834999997      10.470696053342422      21.327419859999999
   342   1      9.4471460700000005      2.4455436766000047      22.088456089999998
   343   1     0.10315393500000065      3.4744543166414528             19.99971979
   344   1            16.561899855     0.49714367571504287      19.128529910000001
   345   1     -1.2865142849999995      2.3054435340755481             22.13893156
   346   1     -3.8834968349999985      7.8428322746876509             21.71672238
   347   1      8.9702594400000049      12.778477024623802      17.464233749999995
   348   1             11.27928816    0.080641583601147107      21.107670300000002
   349   1      14.435815439999997     0.33775967624248576      20.751553309999995
   350   1      1.5138240600000001    0.066909140016893812      21.039347149999998
   351   1     0.22739412000000025     0.97208169797469723      9.4793490400000007
   352   1      1.7148181950000041      13.476348120389526      12.896064280000001
   353   1      5.2755267150000025      10.914224763148734             10.25209781
   354   1      9.3994911450000007      3.6044742612157661      12.203072329999998
   355   1    -0.96321989999999713      10.364196570651776      13.916728479999998
   356   1    -0.35163430499999937      2.9377202982526587      13.048885039999998
   357   1     -1.2777424049999975      11.475209692548018      16.265929360000001
   358   1     -6.6558326399999972      12.345466782243729      15.222955560000001